
     Program PWSCF v.7.4 starts on  4Mar2025 at 10:28:24 
        Git branch: Coulomb_me
        Last git commit: 8cff1b83a366c37df53e620f08cdfebd9e082efc-dirty
        Last git commit date: Tue Feb 18 10:53:49 2025 +0100
        Last git commit subject: Solving bugs in get_coulomb

     This program is part of the open-source Quantum ESPRESSO suite
     for quantum simulation of materials; please cite
         "P. Giannozzi et al., J. Phys.:Condens. Matter 21 395502 (2009);
         "P. Giannozzi et al., J. Phys.:Condens. Matter 29 465901 (2017);
         "P. Giannozzi et al., J. Chem. Phys. 152 154105 (2020);
          URL http://www.quantum-espresso.org", 
     in publications or presentations arising from this work. More details at
     http://www.quantum-espresso.org/quote

     Parallel version (MPI), running on     1 processors

     MPI processes distributed on     1 nodes
     53505 MiB available memory on the printing compute node when the environment starts

     Reading input from GaAs.scf

     Current dimensions of program PWSCF are:
     Max number of different atomic species (ntypx) = 10
     Max number of k-points (npk) =  40000
     Max angular momentum in pseudopotentials (lmaxx) =  4

     Subspace diagonalization in iterative solution of the eigenvalue problem:
     a serial algorithm will be used


     G-vector sticks info
     --------------------
     sticks:   dense  smooth     PW     G-vecs:    dense   smooth      PW
     Sum         583     559    163                 9409     8609    1411

     Using Slab Decomposition



     bravais-lattice index     =            2
     lattice parameter (alat)  =      10.6800  a.u.
     unit-cell volume          =     304.5466 (a.u.)^3
     number of atoms/cell      =            2
     number of atomic types    =            2
     number of electrons       =        28.00
     number of Kohn-Sham states=           18
     kinetic-energy cutoff     =      35.0000  Ry
     charge density cutoff     =     150.0000  Ry
     scf convergence threshold =      1.0E-08
     mixing beta               =       0.7000
     number of iterations used =            8  plain     mixing
     Exchange-correlation= PBE
                           (   1   4   3   4   0   0   0)

     celldm(1)=  10.680000  celldm(2)=   0.000000  celldm(3)=   0.000000
     celldm(4)=   0.000000  celldm(5)=   0.000000  celldm(6)=   0.000000

     crystal axes: (cart. coord. in units of alat)
               a(1) = (  -0.500000   0.000000   0.500000 )  
               a(2) = (   0.000000   0.500000   0.500000 )  
               a(3) = (  -0.500000   0.500000   0.000000 )  

     reciprocal axes: (cart. coord. in units 2 pi/alat)
               b(1) = ( -1.000000 -1.000000  1.000000 )  
               b(2) = (  1.000000  1.000000  1.000000 )  
               b(3) = ( -1.000000  1.000000 -1.000000 )  


     PseudoPot. # 1 for Ga read from file:
     ./pseudo/Ga.upf
     MD5 check sum: 2bb81bf6f0a8d9832cf3329850435ecf
     Pseudo is Norm-conserving + core correction, Zval = 13.0
     Generated using ONCVPSP code by D. R. Hamann
     Using radial grid of 1902 points,  6 beta functions with: 
                l(1) =   0
                l(2) =   0
                l(3) =   1
                l(4) =   1
                l(5) =   2
                l(6) =   2

     PseudoPot. # 2 for As read from file:
     ./pseudo/As.upf
     MD5 check sum: bfe1a874457ce592347346129958e7cf
     Pseudo is Norm-conserving + core correction, Zval = 15.0
     Generated using ONCVPSP code by D. R. Hamann
     Using radial grid of 1358 points,  6 beta functions with: 
                l(1) =   0
                l(2) =   0
                l(3) =   1
                l(4) =   1
                l(5) =   2
                l(6) =   2

     atomic species   valence    mass     pseudopotential
     Ga               13.00    68.92600     Ga( 1.00)
     As               15.00    74.92200     As( 1.00)

     24 Sym. Ops. (no inversion) found



   Cartesian axes

     site n.     atom                  positions (alat units)
         1        Ga     tau(   1) = (   0.0000000   0.0000000   0.0000000  )
         2        As     tau(   2) = (  -0.2500000   0.2500000   0.2500000  )

     number of k points=     3  Methfessel-Paxton smearing, width (Ry)=  0.0100
                       cart. coord. in units 2pi/alat
        k(    1) = (   0.0000000   0.0000000   0.0000000), wk =   0.2500000
        k(    2) = (   0.5000000  -0.5000000   0.5000000), wk =   1.0000000
        k(    3) = (   0.0000000  -1.0000000   0.0000000), wk =   0.7500000

     Dense  grid:     9409 G-vectors     FFT dimensions: (  30,  30,  30)

     Smooth grid:     8609 G-vectors     FFT dimensions: (  30,  30,  30)

     Estimated max dynamical RAM per process >      11.01 MB

     Initial potential from superposition of free atoms

     starting charge      27.9971, renormalised to      28.0000

     negative rho (up, down):  7.955E-04 0.000E+00
     Starting wfcs are   18 randomized atomic wfcs

     total cpu time spent up to now is        1.1 secs

     per-process dynamical memory:    43.0 Mb

     Self-consistent Calculation

     iteration #  1     ecut=    35.00 Ry     beta= 0.70
     Davidson diagonalization with overlap
     ethr =  1.00E-02,  avg # of iterations =  4.0

     negative rho (up, down):  2.356E-04 0.000E+00

     total cpu time spent up to now is        1.3 secs

     total energy              =    -351.32717293 Ry
     estimated scf accuracy    <       3.55914137 Ry

     iteration #  2     ecut=    35.00 Ry     beta= 0.70
     Davidson diagonalization with overlap
     ethr =  1.00E-02,  avg # of iterations =  2.0

     negative rho (up, down):  6.576E-05 0.000E+00

     total cpu time spent up to now is        1.4 secs

     total energy              =    -351.83871919 Ry
     estimated scf accuracy    <       0.19135145 Ry

     iteration #  3     ecut=    35.00 Ry     beta= 0.70
     Davidson diagonalization with overlap
     ethr =  6.83E-04,  avg # of iterations =  2.0

     negative rho (up, down):  1.198E-05 0.000E+00

     total cpu time spent up to now is        1.5 secs

     total energy              =    -351.86160250 Ry
     estimated scf accuracy    <       0.02452260 Ry

     iteration #  4     ecut=    35.00 Ry     beta= 0.70
     Davidson diagonalization with overlap
     ethr =  8.76E-05,  avg # of iterations =  2.0

     total cpu time spent up to now is        1.6 secs

     total energy              =    -351.86724512 Ry
     estimated scf accuracy    <       0.00322007 Ry

     iteration #  5     ecut=    35.00 Ry     beta= 0.70
     Davidson diagonalization with overlap
     ethr =  1.15E-05,  avg # of iterations =  2.0

     total cpu time spent up to now is        1.8 secs

     total energy              =    -351.86781466 Ry
     estimated scf accuracy    <       0.00004062 Ry

     iteration #  6     ecut=    35.00 Ry     beta= 0.70
     Davidson diagonalization with overlap
     ethr =  1.45E-07,  avg # of iterations =  3.0

     total cpu time spent up to now is        1.9 secs

     total energy              =    -351.86782260 Ry
     estimated scf accuracy    <       0.00000230 Ry

     iteration #  7     ecut=    35.00 Ry     beta= 0.70
     Davidson diagonalization with overlap
     ethr =  8.22E-09,  avg # of iterations =  2.0

     total cpu time spent up to now is        2.0 secs

     total energy              =    -351.86782314 Ry
     estimated scf accuracy    <       0.00000002 Ry

     iteration #  8     ecut=    35.00 Ry     beta= 0.70
     Davidson diagonalization with overlap
     ethr =  8.20E-11,  avg # of iterations =  4.0

     total cpu time spent up to now is        2.1 secs

     End of self-consistent calculation

          k = 0.0000 0.0000 0.0000 (  1067 PWs)   bands (ev):

   -25.4026 -25.4026 -25.4026 -25.0100 -25.0100  -7.1781  -7.1781  -7.1781
    -6.7782  -6.7782  -3.9832   8.4780   9.1871   9.1871   9.1871  13.0948
    13.0948  13.0948

          k = 0.5000-0.5000 0.5000 (  1068 PWs)   bands (ev):

   -25.7438 -25.5372 -25.5372 -25.0034 -25.0034  -7.3944  -7.1897  -7.1897
    -6.8943  -6.8943  -2.3448   2.3149   7.9884   7.9884   9.7051  14.2522
    14.2522  17.0925

          k = 0.0000-1.0000 0.0000 (  1090 PWs)   bands (ev):

   -26.6329 -26.6329 -25.6905 -25.6007 -25.3878  -7.8690  -7.8690  -7.2877
    -7.2358  -7.2259  -1.6594   2.0644   6.4460   6.4460  10.8149  11.0223
    18.9857  18.9857

     the Fermi energy is     9.2146 ev

!    total energy              =    -351.86782316 Ry
     estimated scf accuracy    <          9.6E-09 Ry
     smearing contrib. (-TS)   =      -0.00093331 Ry
     internal energy E=F+TS    =    -351.86688985 Ry

     The total energy is F=E-TS. E is the sum of the following terms:
     one-electron contribution =    -170.10821885 Ry
     hartree contribution      =     101.82309395 Ry
     xc contribution           =     -85.15567078 Ry
     ewald contribution        =    -198.42609417 Ry

     convergence has been achieved in   8 iterations

     Forces acting on atoms (cartesian axes, Ry/au):

     atom    1 type  1   force =     0.00000000    0.00000000    0.00000000
     atom    2 type  2   force =     0.00000000    0.00000000    0.00000000

     Total force =     0.000000     Total SCF correction =     0.000000


     Computing stress (Cartesian axis) and pressure

          total   stress  (Ry/bohr**3)                   (kbar)     P=   -17515.81
  -0.11907003  -0.00000000  -0.00000000       -17515.81       -0.00       -0.00
  -0.00000000  -0.11907003  -0.00000000           -0.00   -17515.81       -0.00
  -0.00000000  -0.00000000  -0.11907003           -0.00       -0.00   -17515.81


     Writing all to output data dir ./out/GaAs.save/ :
     XML data file, charge density, pseudopotentials, collected wavefunctions

     init_run     :      0.57s CPU      0.74s WALL (       1 calls)
     electrons    :      0.94s CPU      0.99s WALL (       1 calls)
     forces       :      0.02s CPU      0.02s WALL (       1 calls)
     stress       :      0.10s CPU      0.10s WALL (       1 calls)

     Called by init_run:
     wfcinit      :      0.06s CPU      0.10s WALL (       1 calls)
     potinit      :      0.11s CPU      0.11s WALL (       1 calls)
     hinit0       :      0.39s CPU      0.46s WALL (       1 calls)

     Called by electrons:
     c_bands      :      0.69s CPU      0.71s WALL (       8 calls)
     sum_band     :      0.16s CPU      0.16s WALL (       8 calls)
     v_of_rho     :      0.10s CPU      0.11s WALL (       9 calls)
     mix_rho      :      0.01s CPU      0.02s WALL (       8 calls)

     Called by c_bands:
     init_us_2    :      0.06s CPU      0.07s WALL (      57 calls)
     cegterg      :      0.53s CPU      0.55s WALL (      24 calls)

     Called by *egterg:
     cdiaghg      :      0.02s CPU      0.06s WALL (      87 calls)
     h_psi        :      0.50s CPU      0.52s WALL (      90 calls)
     g_psi        :      0.01s CPU      0.01s WALL (      63 calls)

     Called by h_psi:
     h_psi:calbec :      0.01s CPU      0.01s WALL (      90 calls)
     vloc_psi     :      0.48s CPU      0.49s WALL (      90 calls)
                                        0.00s GPU  (      90 calls)
     add_vuspsi   :      0.01s CPU      0.01s WALL (      90 calls)

     General routines
     calbec       :      0.01s CPU      0.02s WALL (     141 calls)
     fft          :      0.02s CPU      0.09s WALL (     130 calls)
     ffts         :      0.00s CPU      0.00s WALL (      17 calls)
     fftw         :      0.34s CPU      0.35s WALL (    2722 calls)
     interpolate  :      0.00s CPU      0.00s WALL (       9 calls)

     Parallel routines

     PWSCF        :      1.76s CPU      2.26s WALL


   This run was terminated on:  10:28:26   4Mar2025            

=------------------------------------------------------------------------------=
   JOB DONE.
=------------------------------------------------------------------------------=
